<?xml version="1.0"?>
<VTKFile type="PolyData" version="0.1" byte_order="LittleEndian" header_type="UInt32" compressor="vtkZLibDataCompressor">
  <PolyData>
    <Piece NumberOfPoints="24" NumberOfVerts="0" NumberOfLines="24" NumberOfStrips="0" NumberOfPolys="0">
      <PointData Scalars="spokeLength" Vectors="spokeDirection">
        <DataArray type="Float64" Name="spokeDirection" NumberOfComponents="3" format="ascii" RangeMin="0.9999999999999999" RangeMax="1.0000000000000002">
          -0.7723714572576778 -0.5822248706314648 0.2538829100822372 -0.7147802801535669 -0.33185058788322513 0.6156007946917762
          -0.5598762225221566 -0.07600477261566456 0.82508295946163 -0.40174061779652026 0.11646618061306012 0.9083171829189824
          -0.272008951263784 0.24879538959950315 0.929576239232914 -0.1543155738309153 0.35438207262429566 0.922279811269738
          -0.0422615081023312 0.4439245133665931 0.8950670317720064 0.07072183909693333 0.5258417502606765 0.8476372308703387
          0.19064234780617373 0.5994895928063021 0.7773465915149328 0.3306521949465605 0.6693365577650523 0.6653252576118335
          0.4917389710582349 0.7226397790877195 0.48578239369355536 0.6781803302584515 0.7177051643081853 0.1580213174729871
          0.7709430715263368 0.5843342473517664 -0.2533777177207623 0.7136638448390367 0.33412082276469984 -0.6156680861995394
          0.5576125900026823 0.0717371017392597 -0.8269957603909176 0.40539793732817236 -0.11317388180111845 -0.9071075927849628
          0.27107664837151807 -0.2504169934604644 -0.9294131374657268 0.1548252305848326 -0.35318317785545517 -0.922654209795997
          0.04226242664631921 -0.44310995462210745 -0.8954705217977633 -0.06971067127808203 -0.5242146083420812 -0.8487281465290978
          -0.18681794137074173 -0.5971601941620225 -0.7800633046685209 -0.3285755550470285 -0.6684608124383069 -0.6672317789642934
          -0.48980054441836723 -0.7221030644679172 -0.4885310542570596 -0.6767201085658597 -0.7187643952799585 -0.15946046137035602
          <InformationKey name="L2_NORM_RANGE" location="vtkDataArray" length="2">
            <Value index="0">
              1
            </Value>
            <Value index="1">
              1
            </Value>
          </InformationKey>
        </DataArray>
        <DataArray type="Float64" Name="spokeLength" format="ascii" RangeMin="1.3222582902694469" RangeMax="1.5251518202791612">
          1.5080757892525327 1.4673524733707868 1.4427434627624947 1.4088146553472598 1.3742566936243696 1.3464875180237488
          1.3478436420695916 1.3496746849183665 1.379927983616036 1.414257368760479 1.4168141674853998 1.4836894423442486
          1.5251518202791612 1.4687392929880219 1.427043378084724 1.4144649626961756 1.38213765055303 1.3422405709651735
          1.3222582902694469 1.3477755166810446 1.3793512663145029 1.4120812302473087 1.4102220360335336 1.4666808410694723
        </DataArray>
      </PointData>
      <CellData>
      </CellData>
      <Points>
        <DataArray type="Float32" Name="Points" NumberOfComponents="3" format="ascii" RangeMin="8.636546850070662" RangeMax="21.177249322633532">
          -19.127880096435547 -1.209177017211914 8.29237174987793 -18.8729248046875 -0.26155799627304077 9.603134155273438
          -18.025484085083008 1.0790318250656128 10.613965034484863 -16.67058753967285 2.6961681842803955 11.26362419128418
          -14.911720275878906 4.469385623931885 11.507567405700684 -12.83381175994873 6.312494277954102 11.326881408691406
          -10.566611289978027 8.106735229492188 10.735967636108398 -8.28885555267334 9.749430656433105 9.838408470153809
          -6.155404090881348 11.090890884399414 8.64143180847168 -4.311152935028076 12.036561012268066 7.215725421905518
          -2.8749067783355713 12.529698371887207 5.643858432769775 -1.8997471332550049 12.567899703979492 4.036494731903076
          -1.4974936246871948 12.117904663085938 2.5146241188049316 -1.75504732131958 11.168107986450195 1.2072845697402954
          -2.6067161560058594 9.828252792358398 0.1980992555618286 -3.947868585586548 8.22210693359375 -0.46077969670295715
          -5.708609104156494 6.442399978637695 -0.7051284313201904 -7.789278984069824 4.600472450256348 -0.5262928009033203
          -10.057878494262695 2.803234577178955 0.05720949545502663 -12.335214614868164 1.162224531173706 0.9673451781272888
          -14.469035148620605 -0.1804497390985489 2.164663314819336 -16.313631057739258 -1.1292258501052856 3.5928425788879395
          -17.75472068786621 -1.621579885482788 5.162606239318848 -18.734214782714844 -1.6659998893737793 6.769321918487549
          <InformationKey name="L2_NORM_RANGE" location="vtkDataArray" length="2">
            <Value index="0">
              8.6365468501
            </Value>
            <Value index="1">
              21.177249323
            </Value>
          </InformationKey>
        </DataArray>
      </Points>
      <Verts>
        <DataArray type="Int64" Name="connectivity" format="ascii" RangeMin="0" RangeMax="71">
        </DataArray>
        <DataArray type="Int64" Name="offsets" format="ascii" RangeMin="4" RangeMax="192">
        </DataArray>
      </Verts>
      <Lines>
        <DataArray type="Int64" Name="connectivity" format="ascii" RangeMin="0" RangeMax="71">
          0 1 1 2 2 3
          3 4 4 5 5 6
          6 7 7 8 11 9
          10 8 13 11 12 10
          15 13 14 12 16 15
          17 16 18 17 19 18
          20 19 21 20 22 21
          23 22 9 0 23 14
        </DataArray>
        <DataArray type="Int64" Name="offsets" format="ascii" RangeMin="4" RangeMax="192">
          2 4 6 8 10 12
          14 16 18 20 22 24
          26 28 30 32 34 36
          38 40 42 44 46 48
        </DataArray>
      </Lines>
      <Strips>
        <DataArray type="Int64" Name="connectivity" format="ascii" RangeMin="0" RangeMax="71">
        </DataArray>
        <DataArray type="Int64" Name="offsets" format="ascii" RangeMin="4" RangeMax="192">
        </DataArray>
      </Strips>
      <Polys>
        <DataArray type="Int64" Name="connectivity" format="ascii" RangeMin="0" RangeMax="71">
        </DataArray>
        <DataArray type="Int64" Name="offsets" format="ascii" RangeMin="4" RangeMax="192">
        </DataArray>
      </Polys>
    </Piece>
  </PolyData>
</VTKFile>
