<?xml version="1.0"?>
<VTKFile type="PolyData" version="0.1" byte_order="LittleEndian" header_type="UInt32" compressor="vtkZLibDataCompressor">
  <PolyData>
    <Piece NumberOfPoints="72" NumberOfVerts="0" NumberOfLines="0" NumberOfStrips="0" NumberOfPolys="48">
      <PointData Scalars="spokeLength" Vectors="spokeDirection">
        <DataArray type="Float64" Name="spokeDirection" NumberOfComponents="3" format="ascii" RangeMin="0.9999999999999998" RangeMax="1">
          -0.7535170553113394 0.573533169317115 -0.3213592243082396 -0.7903928906347304 0.5324494493329494 -0.3029466328235291
          -0.8669223293266372 0.42844580838901736 -0.25471526100483055 -0.7478977511541172 0.5793979631510301 -0.32395517300245685
          -0.7846043966056397 0.5656583122702022 -0.25382398347423035 -0.8548180427362734 0.5068498504297125 -0.11130742532241415
          -0.7323102074143014 0.5951437328503228 -0.33094666846156084 -0.7627823326939343 0.607203596035402 -0.2224115687001837
          -0.8144188834713414 0.58004582407709 0.016392809887965536 -0.7078719813990462 0.618335007984892 -0.34143678163096586
          -0.7326843260007493 0.6484367524845335 -0.20664814651997146 -0.7528817879030013 0.6482803161302207 0.11358540910733701
          -0.6786266821971437 0.6440039857548343 -0.35316383243755867 -0.6974782488365021 0.6872123112043607 -0.2031337779128021
          -0.6829876789821566 0.7078830780774241 0.18008158742691566 -0.6573079596318646 0.6612121940055795 -0.3615863392094935
          -0.6652247884340285 0.717313569146945 -0.20721299276486688 -0.6108902154291371 0.7618869343772874 0.21527062948326564
          -0.6340200203507297 0.6791738795008044 -0.36978568820100005 -0.6328795139377722 0.7430281220524888 -0.21765277548664738
          -0.5439697065157515 0.8121399812339775 0.21101092216859735 -0.6106976491452468 0.6969783150568691 -0.3758584968694421
          -0.5988313978544612 0.767765874930099 -0.22789584953766 -0.4855244220532394 0.8581484388767171 0.16687508035450113
          -0.5828268235054483 0.7162871462341331 -0.3837259672504724 -0.5635528174749617 0.788324688279594 -0.2468854142409256
          -0.43742394193942685 0.8939096666314365 0.0979071137407659 -0.5553260653442197 0.7339506173521184 -0.39106195473064354
          -0.5267171721777362 0.8046860120695583 -0.27395153314533516 -0.39922532824390455 0.9168498719893585 -0.002334421051032553
          -0.5342891794248794 0.7464483442880834 -0.39667359637246835 -0.4868773982035475 0.8160476322935797 -0.31147497643725225
          -0.3579773433543118 0.924322719586508 -0.13221093639026574 -0.5137200726955913 0.7580404480927957 -0.4018287769248365
          -0.4562281466772867 0.8134950761927444 -0.36066832296386836 -0.33206450605828713 0.9005461039580994 -0.2806240874589242
          -0.504665280972441 0.7630139879780815 -0.40388439971208506 -0.44215453561928875 0.7947174425338996 -0.4158407786204584
          -0.32131840307389603 0.841945861570652 -0.4334531693621513 -0.5137200726955913 0.7580404480927957 -0.4018287769248365
          -0.4552582055096922 0.7598993949420332 -0.4639966334822127 -0.3269493738530994 0.753913756311056 -0.5698404645003897
          -0.5342891794248794 0.7464483442880834 -0.39667359637246835 -0.4824579812729355 0.7206662001515579 -0.4978699873111038
          -0.33550949361669385 0.6499013821898638 -0.6819542309574552 -0.5553260653442197 0.7339506173521184 -0.39106195473064354
          -0.5143574248151452 0.6853018801988008 -0.5155557899330786 -0.35315252441474965 0.5450816540297336 -0.7603744373265708
          -0.5828268235054483 0.7162871462341331 -0.3837259672504724 -0.5506683639577024 0.6523629834869437 -0.5207560760203964
          -0.3910927762789742 0.4450541202211961 -0.805588772523886 -0.6106976491452468 0.6969783150568691 -0.3758584968694421
          -0.585823940119157 0.6224116640437591 -0.5190510877028821 -0.43939382443888286 0.36751189258571804 -0.8196755918368167
          -0.6340200203507297 0.6791738795008044 -0.36978568820100005 -0.6184460753009459 0.5958992496259901 -0.5122777920621181
          -0.496862585319431 0.3053147748967654 -0.8123487302503948 -0.6573079596318646 0.6612121940055795 -0.3615863392094935
          -0.650859826534259 0.5724491793938211 -0.49868168526138495 -0.5654496256769156 0.269298082878559 -0.779580184060478
          -0.6786266821971437 0.6440039857548343 -0.35316383243755867 -0.6850096896518524 0.5491604024280411 -0.47873226075557596
          -0.6393611620222986 0.2589394438729241 -0.7239942464579928 -0.7078719813990462 0.618335007984892 -0.34143678163096586
          -0.7219037606160937 0.5275015420023162 -0.4478806577577561 -0.7154471580069309 0.27386694129329986 -0.6427536562062155
          -0.7323102074143014 0.5951437328503228 -0.33094666846156084 -0.7547591473593835 0.513642269034332 -0.4080566736846725
          -0.7872797412836234 0.307378557597492 -0.5345175687418293 -0.7478977511541172 0.5793979631510301 -0.32395517300245685
          -0.7803454707834668 0.5127407189445031 -0.35799148225063054 -0.8456756697474694 0.3524500087490486 -0.40076383685403105
          <InformationKey name="L2_NORM_RANGE" location="vtkDataArray" length="2">
            <Value index="0">
              1
            </Value>
            <Value index="1">
              1
            </Value>
          </InformationKey>
        </DataArray>
        <DataArray type="Float64" Name="spokeLength" format="ascii" RangeMin="1.145182867460522" RangeMax="2.4617573844696414">
          1.8705914684540372 1.5753571922946732 1.1476567177278616 1.9147430030243582 1.629828103860015 1.157407113019068
          2.0298479441500255 1.7627849890691258 1.1876568527945193 2.1759511302534467 1.9283774169321557 1.2249632861604336
          2.315733190613728 2.082303990730543 1.263472080910765 2.423839271461585 2.1887640724085786 1.292603764238221
          2.4617573844696414 2.224620920718305 1.297872608609239 2.4237669029375213 2.1899514971970846 1.2860685097144957
          2.321310094759826 2.0816022557674825 1.2621155907749788 2.1742276189603826 1.9249927844726868 1.2228988848165685
          2.0163758132995677 1.7589267650538487 1.1868054162844066 1.9010941917753519 1.6271744165866007 1.156339719224915
          1.8586821910802764 1.5761542907705455 1.145182867460522 1.9010941917753519 1.625311674441082 1.1533740626444235
          2.0163758132995677 1.7564854200651996 1.1861710335227253 2.1742276189603826 1.925123992243074 1.2271121901738276
          2.321310094759826 2.080871322195687 1.2644802819043715 2.4237669029375213 2.189840033917125 1.2906088095893988
          2.4617573844696414 2.2303147114787616 1.3017951343310863 2.423839271461585 2.192812961893381 1.2861847934364814
          2.315733190613728 2.083824602138807 1.2648687143304993 2.1759511302534467 1.9290277928619437 1.2250048311625399
          2.0298479441500255 1.7632942941548735 1.1864880499490502 1.9147430030243582 1.630253758918792 1.1629161050520371
        </DataArray>
      </PointData>
      <CellData>
      </CellData>
      <Points>
        <DataArray type="Float32" Name="Points" NumberOfComponents="3" format="ascii" RangeMin="8.682413136420678" RangeMax="21.024410961263484">
          -16.63351821899414 0.682163417339325 7.473053932189941 -17.817384719848633 -0.21761144697666168 7.862967491149902
          -18.995880126953125 -1.1096620559692383 8.249143600463867 -16.414165496826172 0.8485977649688721 7.400848865509033
          -17.591991424560547 0.31677570939064026 8.458657264709473 -18.75389862060547 -0.20562271773815155 9.50130844116211
          -15.771160125732422 1.3353803157806396 7.1897172927856445 -16.865739822387695 1.2078123092651367 8.84630012512207
          -17.93476104736328 1.0918972492218018 10.48120403289795 -14.75218391418457 2.1034436225891113 6.856922626495361
          -15.691534996032715 2.386791944503784 8.99976634979248 -16.607135772705078 2.6782686710357666 11.12109661102295
          -13.44005298614502 3.0905330181121826 6.4288458824157715 -14.15688419342041 3.764457941055298 8.905089378356934
          -14.869646072387695 4.4318413734436035 11.36550521850586 -11.928949356079102 4.230743885040283 5.933559894561768
          -12.366290092468262 5.249228000640869 8.563796997070312 -12.810220718383789 6.259948253631592 11.189032554626465
          -10.310988426208496 5.454254627227783 5.403696060180664 -10.435786247253418 6.749940395355225 8.009411811828613
          -10.560338020324707 8.040788650512695 10.603078842163086 -8.692238807678223 6.679681777954102 4.87310791015625
          -8.4998779296875 8.174844741821289 7.296307563781738 -8.299922943115234 9.670333862304688 9.711682319641113
          -7.178574085235596 7.826206684112549 4.375831604003906 -6.685212135314941 9.41468334197998 6.455181121826172
          -6.185577869415283 10.998422622680664 8.522683143615723 -5.874483585357666 8.8131685256958 3.948422431945801
          -5.11661958694458 10.378743171691895 5.535435676574707 -4.364053726196289 11.930681228637695 7.111210823059082
          -4.865926265716553 9.57452392578125 3.618255376815796 -3.896937847137451 11.008828163146973 4.596998691558838
          -2.9544920921325684 12.414101600646973 5.567513465881348 -4.224737167358398 10.05810832977295 3.4081871509552
          -3.1081786155700684 11.264595031738281 3.7111644744873047 -2.0126917362213135 12.448681831359863 4.010712623596191
          -4.004868984222412 10.224020004272461 3.3360841274261475 -2.8130643367767334 11.124031066894531 2.9452502727508545
          -1.6301343441009521 12.017577171325684 2.5580334663391113 -4.224737167358398 10.05810832977295 3.4081871509552
          -3.0395052433013916 10.58952808380127 2.3499555587768555 -1.8740921020507812 11.112078666687012 1.3090007305145264
          -4.865926265716553 9.57452392578125 3.618255376815796 -3.7670483589172363 9.70035457611084 1.9614402055740356
          -2.6963140964508057 9.815943717956543 0.3299306631088257 -5.874483585357666 8.8131685256958 3.948422431945801
          -4.937354564666748 8.52564811706543 1.8080253601074219 -4.0122785568237305 8.239330291748047 -0.31775370240211487
          -7.178574085235596 7.826206684112549 4.375831604003906 -6.466057777404785 7.148829936981201 1.9036171436309814
          -5.751078128814697 6.480234146118164 -0.5621064305305481 -8.692238807678223 6.679681777954102 4.87310791015625
          -8.25540828704834 5.658956050872803 2.2395036220550537 -7.812832355499268 4.652655601501465 -0.3886360228061676
          -10.310988426208496 5.454254627227783 5.403696060180664 -10.185822486877441 4.155526638031006 2.788254737854004
          -10.063942909240723 2.8679821491241455 0.1882922351360321 -11.928949356079102 4.230743885040283 5.933559894561768
          -12.123011589050293 2.7346901893615723 3.504828691482544 -12.324219703674316 1.2408392429351807 1.093494176864624
          -13.44005298614502 3.0905330181121826 6.4288458824157715 -13.938497543334961 1.5002171993255615 4.350098133087158
          -14.439537048339844 -0.08824213594198227 2.283900499343872 -14.75218391418457 2.1034436225891113 6.856922626495361
          -15.513063430786133 0.534817636013031 5.272282600402832 -16.261119842529297 -1.0232551097869873 3.697420358657837
          -15.771160125732422 1.3353803157806396 7.1897172927856445 -16.736858367919922 -0.09889974445104599 6.211677551269531
          -17.67501449584961 -1.5055444240570068 5.239109992980957 -16.414165496826172 0.8485977649688721 7.400848865509033
          -17.524919509887695 -0.35790833830833435 7.09704065322876 -18.621417999267578 -1.546655535697937 6.795225620269775
          <InformationKey name="L2_NORM_RANGE" location="vtkDataArray" length="2">
            <Value index="0">
              8.6824131364
            </Value>
            <Value index="1">
              21.024410961
            </Value>
          </InformationKey>
        </DataArray>
      </Points>
      <Verts>
        <DataArray type="Int64" Name="connectivity" format="ascii" RangeMin="0" RangeMax="71">
        </DataArray>
        <DataArray type="Int64" Name="offsets" format="ascii" RangeMin="4" RangeMax="192">
        </DataArray>
      </Verts>
      <Lines>
        <DataArray type="Int64" Name="connectivity" format="ascii" RangeMin="0" RangeMax="71">
        </DataArray>
        <DataArray type="Int64" Name="offsets" format="ascii" RangeMin="4" RangeMax="192">
        </DataArray>
      </Lines>
      <Strips>
        <DataArray type="Int64" Name="connectivity" format="ascii" RangeMin="0" RangeMax="71">
        </DataArray>
        <DataArray type="Int64" Name="offsets" format="ascii" RangeMin="4" RangeMax="192">
        </DataArray>
      </Strips>
      <Polys>
        <DataArray type="Int64" Name="connectivity" format="ascii" RangeMin="0" RangeMax="71">
          0 3 4 1 1 4
          5 2 3 6 7 4
          4 7 8 5 6 9
          10 7 7 10 11 8
          9 12 13 10 10 13
          14 11 12 15 16 13
          13 16 17 14 15 18
          19 16 16 19 20 17
          18 21 22 19 19 22
          23 20 21 24 25 22
          22 25 26 23 24 27
          28 25 25 28 29 26
          27 30 31 28 28 31
          32 29 30 33 34 31
          31 34 35 32 33 36
          37 34 34 37 38 35
          36 39 40 37 37 40
          41 38 39 42 43 40
          40 43 44 41 42 45
          46 43 43 46 47 44
          45 48 49 46 46 49
          50 47 48 51 52 49
          49 52 53 50 51 54
          55 52 52 55 56 53
          54 57 58 55 55 58
          59 56 57 60 61 58
          58 61 62 59 60 63
          64 61 61 64 65 62
          63 66 67 64 64 67
          68 65 66 69 70 67
          67 70 71 68 69 0
          1 70 70 1 2 71
        </DataArray>
        <DataArray type="Int64" Name="offsets" format="ascii" RangeMin="4" RangeMax="192">
          4 8 12 16 20 24
          28 32 36 40 44 48
          52 56 60 64 68 72
          76 80 84 88 92 96
          100 104 108 112 116 120
          124 128 132 136 140 144
          148 152 156 160 164 168
          172 176 180 184 188 192
        </DataArray>
      </Polys>
    </Piece>
  </PolyData>
</VTKFile>
