# vtk DataFile Version 4.2
vtk output
ASCII
DATASET POLYDATA
POINTS 1002 float
-3.73939 7.99956 4.4547 -14.2279 0.0707108 7.89179 -6.3936 10.8426 2.9137 
-16.8821 2.91378 6.35078 -9.75876 7.34994 11.4547 -11.3992 9.10705 10.5023 
-9.22238 1.80628 0.303148 -10.8628 3.5634 -0.649246 -18.9619 0.755179 11.6294 
-1.99111 13.5843 6.06811 -18.6304 -2.67099 4.73737 -1.65961 10.1582 -0.823946 
-4.49113 7.30083 4.7659 -5.37976 6.51164 5.11548 -6.40232 5.6441 5.49756 
-7.53875 4.72323 5.90068 -8.75066 3.78556 6.30852 -9.98613 2.87313 6.70268 
-11.1902 2.02469 7.06654 -12.3162 1.26799 7.38855 -13.3334 0.616485 7.6635 
-4.02017 8.06791 5.14136 -4.39455 8.11631 5.90091 -4.87223 8.13625 6.71739 
-5.4531 8.12028 7.56342 -6.12375 8.06418 8.40277 -6.85765 7.9687 9.1968 
-7.61999 7.83971 9.9128 -8.37539 7.68669 10.5303 -9.09474 7.52026 11.0427 
-3.96364 7.48372 3.96621 -4.27631 6.89424 3.44259 -4.68859 6.2383 2.89948 
-5.20278 5.53318 2.35924 -5.80847 4.8057 1.84803 -6.48217 4.08805 1.39052 
-7.1915 3.41115 1.00435 -7.90241 2.79839 0.697018 -8.58602 2.26254 0.466277 
-3.20161 8.72489 4.57372 -2.68221 9.49065 4.71345 -2.21286 10.2707 4.8732 
-1.82811 11.0297 5.04961 -1.55804 11.7287 5.23659 -1.42017 12.3329 5.42608 
-1.4148 12.8201 5.6097 -1.52601 13.1841 5.78046 -1.72774 13.4331 5.93389 
-3.16668 8.36384 3.84743 -2.60913 8.73537 3.19413 -2.09937 9.09768 2.5136 
-1.67341 9.43081 1.83325 -1.36318 9.71481 1.18554 -1.18812 9.93449 0.601539 
-1.14997 10.0831 0.103973 -1.23369 10.1629 -0.296834 -1.41333 10.1836 -0.602683 
-13.9677 0.548028 8.40116 -13.6432 1.12479 8.93167 -13.251 1.80228 9.4631 
-12.7952 2.56996 9.96943 -12.2888 3.40372 10.423 -11.7524 4.26849 10.8008 
-11.2109 5.12515 11.0895 -10.6875 5.93881 11.288 -10.2 6.68472 11.4049 
-13.9112 -0.0361631 7.22601 -13.5249 -0.0972862 6.47336 -13.0674 -0.0956696 5.6452 
-12.5449 -0.0171316 4.76525 -11.9735 0.14524 3.8683 -11.3769 0.387844 2.99453 
-10.7824 0.696595 2.18109 -10.2146 1.05051 1.45471 -9.69131 1.427 0.828477 
-14.9375 -0.146929 8.41957 -15.672 -0.328998 8.97019 -16.4018 -0.455531 9.52291 
-17.0901 -0.507658 10.051 -17.6982 -0.472584 10.5257 -18.1948 -0.347945 10.9231 
-18.5628 -0.14308 11.2291 -18.8027 0.123667 11.442 -18.9285 0.430106 11.5706 
-14.9026 -0.507979 7.69329 -15.5989 -1.08428 7.45086 -16.2884 -1.62853 7.16332 
-16.9354 -2.10657 6.8346 -17.5034 -2.48644 6.47467 -17.9627 -2.74631 6.09855 
-18.298 -2.88008 5.72337 -18.5104 -2.89747 5.36473 -18.6141 -2.81934 5.03399 
-7.28814 10.2969 3.14198 -8.30531 9.64534 3.41694 -9.43134 8.88865 3.73894 
-10.6354 8.04021 4.1028 -11.8709 7.12778 4.49696 -13.0828 6.19011 4.9048 
-14.2192 5.26924 5.30792 -15.2418 4.4017 5.69001 -16.1304 3.61251 6.03959 
-6.71034 10.9495 3.57948 -7.09661 11.0106 4.33213 -7.55416 11.009 5.16029 
-8.07662 10.9305 6.04023 -8.64805 10.7681 6.93718 -9.2446 10.5255 7.81095 
-9.83913 10.2167 8.6244 -10.407 9.86283 9.35078 -10.9302 9.48634 9.97701 
-6.65382 10.3653 2.40432 -6.97836 9.78855 1.87381 -7.37052 9.11106 1.34238 
-7.8263 8.34337 0.836052 -8.33277 7.50962 0.382448 -8.86913 6.64485 0.0046806 
-9.41064 5.78819 -0.284053 -9.93399 4.97452 -0.482494 -10.4215 4.22862 -0.599385 
-5.71892 11.4213 3.1122 -5.02265 11.9976 3.35462 -4.33318 12.5419 3.64216 
-3.6861 13.0199 3.97088 -3.11814 13.3998 4.33081 -2.65883 13.6597 4.70693 
-2.3235 13.7934 5.08211 -2.11112 13.8108 5.44075 -2.00744 13.7327 5.7715 
-5.68398 11.0603 2.38591 -4.94957 11.2423 1.8353 -4.21969 11.3689 1.28257 
-3.5314 11.421 0.754523 -2.92329 11.3859 0.279762 -2.42677 11.2613 -0.117612 
-2.05868 11.0564 -0.423613 -1.8188 10.7897 -0.636542 -1.69304 10.4832 -0.765074 
-16.6579 3.42962 6.83928 -16.3452 4.0191 7.36289 -15.9329 4.67504 7.906 
-15.4188 5.38016 8.44625 -14.8131 6.10764 8.95745 -14.1394 6.82529 9.41496 
-13.43 7.50219 9.80113 -12.7191 8.11495 10.1085 -12.0355 8.6508 10.3392 
-16.6014 2.84542 5.66412 -16.227 2.79703 4.90457 -15.7493 2.77709 4.0881 
-15.1684 2.79306 3.24206 -14.4978 2.84916 2.40272 -13.7639 2.94464 1.60869 
-13.0015 3.07363 0.892683 -12.2461 3.22664 0.275196 -11.5268 3.39308 -0.237184 
-17.4549 2.54949 6.95805 -18.0124 2.17797 7.61135 -18.5222 1.81565 8.29188 
-18.9481 1.48253 8.97223 -19.2583 1.19853 9.61994 -19.4334 0.978848 10.2039 
-19.4716 0.830285 10.7015 -19.3878 0.750408 11.1023 -19.2082 0.729709 11.4082 
-17.4199 2.18844 6.23177 -17.9393 1.42268 6.09203 -18.4087 0.642656 5.93229 
-18.7934 -0.116382 5.75587 -19.0635 -0.815324 5.56889 -19.2014 -1.41952 5.3794 
-19.2067 -1.90671 5.19579 -19.0955 -2.27073 5.02502 -18.8938 -2.51974 4.8716 
-9.90193 7.63697 11.68 -10.0639 7.93084 11.8635 -10.2424 8.21887 11.9833 
-10.4323 8.48554 12.0191 -10.626 8.71515 11.9575 -10.815 8.89554 11.7969 
-10.9912 9.02097 11.5485 -11.1488 9.09288 11.2336 -11.2848 9.11828 10.8771 
-10.6989 6.75685 11.7987 -11.7311 6.0897 12.1119 -12.8316 5.35949 12.3692 
-13.9616 4.58791 12.5451 -15.0713 3.80604 12.62 -16.1091 3.0491 12.5858 
-17.0328 2.34907 12.4489 -17.8175 1.72834 12.2275 -18.4575 1.19719 11.946 
-8.91051 8.10878 11.2127 -7.98999 8.91783 10.886 -7.02144 9.75173 10.4652 
-6.04177 10.575 9.94974 -5.09613 11.3468 9.3511 -4.22927 12.0297 8.69283 
-3.47562 12.5976 8.00626 -2.85295 13.0409 7.32359 -2.36206 13.3646 6.67155 
-12.2547 8.42333 10.8955 -13.1776 7.63909 11.2721 -14.1421 6.76316 11.6084 
-15.1099 5.81792 11.8784 -16.0355 4.83885 12.0602 -16.8746 3.86911 12.1414 
-17.5944 2.95064 12.1229 -18.1791 2.11569 12.0175 -18.6304 1.38236 11.8457 
-10.4663 9.77526 10.3094 -9.43646 10.4672 10.0462 -8.33187 11.1554 9.70435 
-7.19006 11.805 9.28305 -6.06033 12.3796 8.7913 -4.99481 12.8497 8.24837 
-4.03723 13.1992 7.68019 -3.21457 13.4282 7.11364 -2.53493 13.5498 6.57119 
-9.33669 1.79505 -0.0715775 -9.47273 1.82046 -0.428125 -9.63029 1.89237 -0.743058 
-9.80649 2.0178 -0.991371 -9.99549 2.19819 -1.15199 -10.1893 2.4278 -1.2136 
-10.3791 2.69446 -1.17781 -10.5576 2.9825 -1.05798 -10.7196 3.27637 -0.874484 
-10.1552 1.13807 0.496065 -11.1851 0.446116 0.759332 -12.2897 -0.242066 1.10113 
-13.4315 -0.891644 1.52244 -14.5612 -1.46629 2.01418 -15.6267 -1.93636 2.55711 
-16.5843 -2.28588 3.12529 -17.407 -2.51487 3.69185 -18.0866 -2.63645 4.2343 
-8.36686 2.49001 -0.0899874 -7.44393 3.27425 -0.466637 -6.47946 4.15018 -0.802869 
-5.51158 5.09542 -1.0729 -4.586 6.07449 -1.25468 -3.7469 7.04423 -1.33589 
-3.02716 7.9627 -1.31737 -2.44239 8.79765 -1.21203 -1.99113 9.53098 -1.04017 
-11.711 2.80456 -0.407205 -12.6315 1.99551 -0.0804728 -13.6001 1.1616 0.340309 
-14.5798 0.338361 0.855748 -15.5254 -0.433487 1.45438 -16.3923 -1.11636 2.11265 
-17.1459 -1.68431 2.79923 -17.7686 -2.12752 3.4819 -18.2595 -2.45128 4.13393 
-9.92264 4.15649 -0.993258 -8.8904 4.82364 -1.30644 -7.78988 5.55385 -1.56369 
-6.65988 6.32543 -1.73959 -5.5502 7.1073 -1.81448 -4.51243 7.86424 -1.78035 
-3.58877 8.56427 -1.64344 -2.80401 9.185 -1.42198 -2.164 9.71615 -1.14054 
-19.3924 0.141186 11.2381 -19.7732 -0.480729 10.7466 -20.0701 -1.08174 10.1491 
-20.2493 -1.62743 9.451 -20.286 -2.08412 8.6716 -20.1719 -2.42689 7.84282 
-19.9188 -2.64574 7.00301 -19.554 -2.74658 6.18868 -19.113 -2.74721 5.42786 
-1.50857 13.6606 5.37762 -1.06753 13.6599 4.61681 -0.702752 13.5591 3.80247 
-0.449587 13.3402 2.96266 -0.33557 12.9975 2.13388 -0.372235 12.5408 1.35448 
-0.551425 11.9951 0.656346 -0.848292 11.3941 0.0588345 -1.2291 10.7722 -0.432662 
-4.85036 7.32657 5.50891 -5.30972 7.33274 6.32414 -5.82726 6.4898 5.91155 
-5.87318 7.31341 7.18851 -6.37565 6.45218 6.77396 -6.94038 5.5752 6.33771 
-6.53184 7.26457 8.0666 -7.02005 6.39686 7.67156 -7.57131 5.49899 7.23209 
-8.15847 4.61516 6.7698 -7.26212 7.18576 8.91586 -7.74082 6.32406 8.56167 
-8.27932 5.41821 8.14198 -8.85272 4.51303 7.67523 -9.43097 3.65321 7.1868 
-8.02924 7.08073 9.69583 -8.50499 6.23661 9.39842 -9.0346 5.3367 9.02032 
-9.59537 4.42334 8.57325 -10.1588 3.543 8.07999 -10.6972 2.73519 7.56883 
-8.79497 6.95661 10.3772 -9.27332 6.13946 10.1437 -9.79872 5.25861 9.82238 
-10.3503 4.35141 9.4168 -10.9012 3.46287 8.94342 -11.4247 2.63531 8.42854 
-11.9002 1.89895 7.90164 -9.52618 6.82195 10.9465 -10.0096 6.03844 10.7752 
-10.5338 5.18739 10.5166 -11.0796 4.29991 10.1669 -11.6218 3.41677 9.73459 
-12.1346 2.58007 9.24037 -12.5972 1.82373 8.71225 -12.9978 1.16749 8.17882 
-3.49244 8.82619 5.30654 -2.99319 9.61958 5.48918 -3.89269 8.89763 6.11296 
-2.55732 10.4156 5.6845 -3.43031 9.70484 6.33501 -4.41216 8.92688 6.97077 
-2.22005 11.1732 5.88479 -3.0432 10.4996 6.55725 -4.00131 9.73058 7.22167 
-5.04723 8.90408 7.84535 -2.00794 11.8508 6.08053 -2.76381 11.2373 6.76779 
-3.67306 10.5051 7.45551 -4.69636 9.68618 8.10795 -5.77752 8.82527 8.69461 
-1.93111 12.416 6.2624 -2.61191 11.8773 6.95527 -3.4537 11.2058 7.65795 
-4.42835 10.4236 8.33384 -5.48625 9.57032 8.94853 -6.56822 8.69419 9.47809 
-1.98092 12.8532 6.42335 -2.5887 12.3933 7.11169 -3.35438 11.7972 7.8187 
-4.2614 11.0756 8.50936 -5.27061 10.2592 9.14754 -6.32797 9.39212 9.70475 
-7.37794 8.5215 10.166 -2.13438 13.1644 6.55982 -2.67797 12.778 7.23396 
-3.36848 12.2609 7.93394 -4.19881 11.6143 8.62832 -5.1412 10.8579 9.28184 
-6.15075 10.0278 9.86335 -7.17548 9.16822 10.3528 -8.16825 8.32157 10.7441 
-2.98439 13.2873 7.23093 -3.75494 13.1097 7.824 -3.56498 12.9062 7.93429 
-4.67473 12.8127 8.42858 -4.43237 12.6599 8.56732 -4.28302 12.3931 8.656 
-5.72516 12.3882 9.0154 -5.44633 12.2871 9.19313 -5.24399 12.0704 9.31061 
-5.12811 11.7487 9.36204 -6.86657 11.845 9.55337 -6.57523 11.7883 9.77703 
-6.33703 11.6227 9.93443 -6.16711 11.3512 10.014 -6.0705 10.9923 10.0156 
-8.04456 11.209 10.0169 -7.76723 11.1826 10.287 -7.51751 11.0609 10.4908 
-7.31168 10.8405 10.6103 -7.16022 10.5324 10.6395 -7.06529 10.16 10.5854 
-9.20225 10.5173 10.3914 -8.96131 10.5045 10.7019 -8.72534 10.4136 10.9514 
-8.50778 10.2373 11.1172 -8.32067 9.98014 11.1864 -8.17164 9.65869 11.1604 
-8.06249 9.29647 11.0532 -10.2925 9.80938 10.6754 -10.1018 9.79538 11.0152 
[...]
POINT_DATA 1002
FIELD FieldData 4
_paraPhi 1 1002 double
6.2831853072 3.1415926536 6.2831853072 3.1415926536 4.7123889804 4.7123889804 1.5707963268 1.5707963268 3.6951670125 
5.7296109483 2.5880182947 0.5535743589 6.2831853072 6.2831853072 6.2831853072 6.2831853072 3.1415926536 3.1415926536 
3.1415926536 3.1415926536 3.1415926536 6.1053039672 5.898798347 5.6768734901 5.4599499503 5.2659633393 5.1032165617 
4.9713148346 4.8656852733 4.7809517865 0.17788134 0.38438696014 0.60631181711 0.82323535693 1.0172219679 1.1799687454 
1.3118704726 1.4175000338 1.5022335207 6.1892828907 6.1070320098 6.035312792 5.9728339911 5.9183214791 5.8706119594 
5.8286879411 5.7916808611 5.7588591896 0.093902416448 0.17615329733 0.2478725152 0.31035131605 0.36486382811 0.41257334776 
0.45449736604 0.4915044461 0.52432611754 3.3194739936 3.5259796137 3.7479044707 3.9648280105 4.1588146215 4.321561399 
4.4534631262 4.5590926874 4.6438261743 2.9637113136 2.7572056934 2.5352808365 2.3183572967 2.1243706857 1.9616239082 
1.829722181 1.7240926197 1.6393591329 3.23549507 3.3177459509 3.3894651688 3.4519439696 3.5064564817 3.5541660013 
3.5960900196 3.6330970997 3.6659187711 3.0476902371 2.9654393563 2.8937201384 2.8312413375 2.7767288255 2.7290193058 
2.6870952876 2.6500882075 2.617266536 6.2831853072 6.2831853072 6.2831853072 6.2831853072 3.1415926536 3.1415926536 
3.1415926536 3.1415926536 3.1415926536 6.1053039672 5.898798347 5.6768734901 5.4599499503 5.2659633393 5.1032165617 
4.9713148346 4.8656852733 4.7809517865 0.17788134 0.38438696014 0.60631181711 0.82323535693 1.0172219679 1.1799687454 
1.3118704726 1.4175000338 1.5022335207 6.1892828907 6.1070320098 6.035312792 5.9728339911 5.9183214791 5.8706119594 
5.8286879411 5.7916808611 5.7588591896 0.093902416448 0.17615329733 0.2478725152 0.31035131605 0.36486382811 0.41257334776 
0.45449736604 0.4915044461 0.52432611754 3.3194739936 3.5259796137 3.7479044707 3.9648280105 4.1588146215 4.321561399 
4.4534631262 4.5590926874 4.6438261743 2.9637113136 2.7572056934 2.5352808365 2.3183572967 2.1243706857 1.9616239082 
1.829722181 1.7240926197 1.6393591329 3.23549507 3.3177459509 3.3894651688 3.4519439696 3.5064564817 3.5541660013 
3.5960900196 3.6330970997 3.6659187711 3.0476902371 2.9654393563 2.8937201384 2.8312413375 2.7767288255 2.7290193058 
2.6870952876 2.6500882075 2.617266536 4.7123889804 4.7123889804 4.7123889804 4.7123889804 4.7123889804 4.7123889804 
4.7123889804 4.7123889804 4.7123889804 4.6087898617 4.4991390697 4.3857031936 4.2712800401 4.1588146215 4.0509635631 
3.94975894 3.8564636551 3.7716124825 4.8159880991 4.9256388911 5.0390747672 5.1534979207 5.2659633393 5.3738143976 
5.4750190208 5.5683143056 5.6531654782 4.6087898617 4.4991390697 4.3857031936 4.2712800401 4.1588146215 4.0509635631 
3.94975894 3.8564636551 3.7716124825 4.8159880991 4.9256388911 5.0390747672 5.1534979207 5.2659633393 5.3738143976 
5.4750190208 5.5683143056 5.6531654782 1.5707963268 1.5707963268 1.5707963268 1.5707963268 1.5707963268 1.5707963268 
1.5707963268 1.5707963268 1.5707963268 1.6743954455 1.7840462375 1.8974821136 2.0119052671 2.1243706857 2.232221744 
2.3334263672 2.426721652 2.5115728246 1.4671972081 1.3575464161 1.24411054 1.1296873865 1.0172219679 0.90937090954 
0.80816628637 0.71487100155 0.63001982895 1.6743954455 1.7840462375 1.8974821136 2.0119052671 2.1243706857 2.232221744 
2.3334263672 2.426721652 2.5115728246 1.4671972081 1.3575464161 1.24411054 1.1296873865 1.0172219679 0.90937090954 
0.80816628637 0.71487100155 0.63001982895 3.6007720849 3.4966939854 3.3839471039 3.2645756454 3.1415926536 3.0186096618 
2.8992382033 2.7864913217 2.6824132222 5.8240058758 5.9280839753 6.0408308569 6.1602023154 6.2831853072 0.12298299178 
0.2423544503 0.35510133185 0.45917943135 6.0560271438 5.7885595667 5.9702140275 5.5125918794 5.6029703303 5.7885595667 
5.2659633393 5.2659633393 5.2659633393 5.2659633393 5.0674903122 5.0120975802 4.9155579264 4.7123889804 4.1588146215 
4.9155579264 4.8353719722 4.7123889804 4.5092200343 4.1588146215 3.6362183941 4.8004512023 4.7123889804 4.5894059886 
4.4126803806 4.1588146215 3.8218076305 3.4545639333 4.7123889804 4.6243267584 4.5092200343 4.3572876485 4.1588146215 
3.9121860814 3.6362183941 3.368750817 6.0174235957 5.9434319871 5.8263323547 5.8809213739 5.7674481418 5.6279784266 
5.8278025282 5.718968232 5.5891129425 5.4372443565 5.7823484065 5.678536687 5.5575666702 5.4192596322 5.2659633393 
5.743164462 5.6444075337 5.5314983644 5.4046708639 5.2659633393 5.1195510325 5.7091357773 5.6152775188 5.5096229709 
5.3926039573 5.2659633393 5.1329233157 4.9978930058 5.6793730533 5.5901633916 5.4910209005 5.3824597928 5.2659633393 
5.1440684722 5.0201624502 4.8979782167 5.5683143056 5.4750190208 5.4750190208 5.3738143976 5.3738143976 5.3738143976 
5.2659633393 5.2659633393 5.2659633393 5.2659633393 5.1534979207 5.1534979207 5.1534979207 5.1534979207 5.1534979207 
5.0390747672 5.0390747672 5.0390747672 5.0390747672 5.0390747672 5.0390747672 4.9256388911 4.9256388911 4.9256388911 
4.9256388911 4.9256388911 4.9256388911 4.9256388911 4.8159880991 4.8159880991 4.8159880991 4.8159880991 4.8159880991 
4.8159880991 4.8159880991 4.8159880991 4.6087898617 4.6087898617 4.4991390697 4.6087898617 4.4991390697 4.3857031936 
4.6087898617 4.4991390697 4.3857031936 4.2712800401 4.6087898617 4.4991390697 4.3857031936 4.2712800401 4.1588146215 
4.6087898617 4.4991390697 4.3857031936 4.2712800401 4.1588146215 4.0509635631 4.6087898617 4.4991390697 4.3857031936 
4.2712800401 4.1588146215 4.0509635631 3.94975894 4.6087898617 4.4991390697 4.3857031936 4.2712800401 4.1588146215 
4.0509635631 3.94975894 3.8564636551 4.526799744 4.4046155105 4.426884955 4.2807094886 4.2918546451 4.3052269283 
4.1588146215 4.1588146215 4.1588146215 4.1588146215 4.042318168 4.0321740035 4.0201070968 4.0055183285 3.9875336042 
3.9337570603 3.9151549899 3.8932795963 3.8672112905 3.8356650183 3.7967995342 3.8346145692 3.809500442 3.7803704271 
3.7462412737 3.7058097288 3.657329819 3.5984456061 3.7454049075 3.7156421835 3.6816134988 3.6424295543 3.5969754326 
3.5438565869 3.4813459737 3.4073543651 3.5642842451 3.4524645613 3.5233842518 3.3320300872 3.403123212 3.4773852225 
3.20576226 3.2746326772 3.348015857 3.4255060145 3.0774230472 3.1415926536 3.2112816139 3.2864685043 3.3668817272 
2.95115522 3.00855263 3.0719036933 3.1415926536 3.2178377658 3.3005964304 2.8307207459 2.8800620952 2.9351694502 
2.9967168029 3.0653475414 3.1415926536 3.225752376 2.718901062 2.7598010554 2.8058000847 2.8576792927 2.91630358 
2.9825888767 3.0574329311 3.1415926536 3.5642842451 3.5233842518 3.4524645613 3.4773852225 3.403123212 3.3320300872 
3.4255060145 3.348015857 3.2746326772 3.20576226 3.3668817272 3.2864685043 3.2112816139 3.1415926536 3.0774230472 
3.3005964304 3.2178377658 3.1415926536 3.0719036933 3.00855263 2.95115522 3.225752376 3.1415926536 3.0653475414 
2.9967168029 2.9351694502 2.8800620952 2.8307207459 3.1415926536 3.0574329311 2.9825888767 2.91630358 2.8576792927 
2.8058000847 2.7598010554 2.718901062 4.526799744 4.426884955 4.4046155105 4.3052269283 4.2918546451 4.2807094886 
4.1588146215 4.1588146215 4.1588146215 4.1588146215 3.9875336042 4.0055183285 4.0201070968 4.0321740035 4.042318168 
3.7967995342 3.8356650183 3.8672112905 3.8932795963 3.9151549899 3.9337570603 3.5984456061 3.657329819 3.7058097288 
3.7462412737 3.7803704271 3.809500442 3.8346145692 3.4073543651 3.4813459737 3.5438565869 3.5969754326 3.6424295543 
3.6816134988 3.7156421835 3.7454049075 4.7123889804 4.8004512023 4.6243267584 4.9155579264 4.7123889804 4.5092200343 
5.0674903122 4.8353719722 4.5894059886 4.3572876485 5.2659633393 5.0120975802 4.7123889804 4.4126803806 4.1588146215 
5.5125918794 5.2659633393 4.9155579264 4.5092200343 4.1588146215 3.9121860814 5.7885595667 5.6029703303 5.2659633393 
4.7123889804 4.1588146215 3.8218076305 3.6362183941 6.0560271438 5.9702140275 5.7885595667 5.2659633393 4.1588146215 
3.6362183941 3.4545639333 3.368750817 0.22715816343 0.49462574053 0.3129712797 0.77059342779 0.68021497688 0.49462574053 
1.0172219679 1.0172219679 1.0172219679 1.0172219679 1.2156949949 1.271087727 1.3676273807 1.5707963268 2.1243706857 
1.3676273807 1.447813335 1.5707963268 1.7739652728 2.1243706857 2.6469669131 1.4827341049 1.5707963268 1.6937793186 
1.8705049266 2.1243706857 2.4613776767 2.8286213739 1.5707963268 1.6588585487 1.7739652728 1.9258976586 2.1243706857 
2.3709992258 2.6469669131 2.9144344902 1.7563855631 1.8785697967 1.8563003522 2.0024758186 1.9913306621 1.9779583789 
2.1243706857 2.1243706857 2.1243706857 2.1243706857 2.2408671392 2.2510113037 2.2630782103 2.2776669786 2.295651703 
2.3494282469 2.3680303173 2.3899057108 2.4159740166 2.4475202889 2.486385773 2.448570738 2.4736848652 2.5028148801 
2.5369440334 2.5773755784 2.6258554882 2.6847397011 2.5377803997 2.5675431237 2.6015718084 2.6407557529 2.6862098746 
2.7393287203 2.8018393335 2.8758309421 1.6743954455 1.6743954455 1.7840462375 1.6743954455 1.7840462375 1.8974821136 
1.6743954455 1.7840462375 1.8974821136 2.0119052671 1.6743954455 1.7840462375 1.8974821136 2.0119052671 2.1243706857 
1.6743954455 1.7840462375 1.8974821136 2.0119052671 2.1243706857 2.232221744 1.6743954455 1.7840462375 1.8974821136 
2.0119052671 2.1243706857 2.232221744 2.3334263672 1.6743954455 1.7840462375 1.8974821136 2.0119052671 2.1243706857 
2.232221744 2.3334263672 2.426721652 1.4671972081 1.3575464161 1.4671972081 1.24411054 1.3575464161 1.4671972081 
1.1296873865 1.24411054 1.3575464161 1.4671972081 1.0172219679 1.1296873865 1.24411054 1.3575464161 1.4671972081 
0.90937090954 1.0172219679 1.1296873865 1.24411054 1.3575464161 1.4671972081 0.80816628637 0.90937090954 1.0172219679 
1.1296873865 1.24411054 1.3575464161 1.4671972081 0.71487100155 0.80816628637 0.90937090954 1.0172219679 1.1296873865 
1.24411054 1.3575464161 1.4671972081 0.60381225391 0.57404952988 0.69302191562 0.54002084522 0.66790778838 0.79216440667 
0.50083690068 0.63877777351 0.77356233629 0.90072551443 0.45538277901 0.60464862014 0.75168694275 0.89058134991 1.0172219679 
0.40226393329 0.56421707518 0.72561863695 0.87851444325 1.0172219679 1.139116835 0.33975332011 0.51573716537 0.69407236469 
0.86392567495 1.0172219679 1.1502619915 1.2630228569 0.26576171152 0.45685295248 0.6552068806 0.84594095064 1.0172219679 
1.1636342747 1.2852923014 1.3852070904 0.22715816343 0.3129712797 0.49462574053 0.49462574053 0.68021497688 0.77059342779 
1.0172219679 1.0172219679 1.0172219679 1.0172219679 2.1243706857 1.5707963268 1.3676273807 1.271087727 1.2156949949 
2.6469669131 2.1243706857 1.7739652728 1.5707963268 1.447813335 1.3676273807 2.8286213739 2.4613776767 2.1243706857 
1.8705049266 1.6937793186 1.5707963268 1.4827341049 2.9144344902 2.6469669131 2.3709992258 2.1243706857 1.9258976586 
1.7739652728 1.6588585487 1.5707963268 1.7563855631 1.8563003522 1.8785697967 1.9779583789 1.9913306621 2.0024758186 
2.1243706857 2.1243706857 2.1243706857 2.1243706857 2.295651703 2.2776669786 2.2630782103 2.2510113037 2.2408671392 
2.486385773 2.4475202889 2.4159740166 2.3899057108 2.3680303173 2.3494282469 2.6847397011 2.6258554882 2.5773755784 
2.5369440334 2.5028148801 2.4736848652 2.448570738 2.8758309421 2.8018393335 2.7393287203 2.6862098746 2.6407557529 
2.6015718084 2.5675431237 2.5377803997 5.8604937156 5.901393709 5.9723133995 5.9473927383 6.0216547488 6.0927478736 
5.9992719463 6.0767621038 6.1501452836 6.2190157008 6.0578962336 6.1383094565 6.2134963469 0 0.064169606361 
6.1241815303 6.206940195 6.2831853072 0.069688960264 0.13304002361 0.19043743361 6.1990255847 0 0.07624511221 
0.14487585072 0.20642320337 0.26153055843 0.3108719077 0 0.084159722458 0.15900377685 0.22528907359 0.28391336087 
0.3357925689 0.38179159818 0.42269159155 5.8604937156 5.9723133995 5.901393709 6.0927478736 6.0216547488 5.9473927383 
6.2190157008 6.1501452836 6.0767621038 5.9992719463 0.064169606361 0 6.2134963469 6.1383094565 6.0578962336 
0.19043743361 0.13304002361 0.069688960264 6.2831853072 6.206940195 6.1241815303 0.3108719077 0.26153055843 0.20642320337 
0.14487585072 0.07624511221 6.2831853072 6.1990255847 0.42269159155 0.38179159818 0.3357925689 0.28391336087 0.22528907359 
0.15900377685 0.084159722458 0 5.6793730533 5.7091357773 5.5901633916 5.743164462 5.6152775188 5.4910209005 
5.7823484065 5.6444075337 5.5096229709 5.3824597928 5.8278025282 5.678536687 5.5314983644 5.3926039573 5.2659633393 
5.8809213739 5.718968232 5.5575666702 5.4046708639 5.2659633393 5.1440684722 5.9434319871 5.7674481418 5.5891129425 
5.4192596322 5.2659633393 5.1329233157 5.0201624502 6.0174235957 5.8263323547 5.6279784266 5.4372443565 5.2659633393 
5.1195510325 4.9978930058 4.8979782167 1.3852070904 1.2852923014 1.2630228569 1.1636342747 1.1502619915 1.139116835 
1.0172219679 1.0172219679 1.0172219679 1.0172219679 0.84594095064 0.86392567495 0.87851444325 0.89058134991 0.90072551443 
0.6552068806 0.69407236469 0.72561863695 0.75168694275 0.77356233629 0.79216440667 0.45685295248 0.51573716537 0.56421707518 
0.60464862014 0.63877777351 0.66790778838 0.69302191562 0.26576171152 0.33975332011 0.40226393329 0.45538277901 0.50083690068 
0.54002084522 0.57404952988 0.60381225391 
_paraPhiHalf 1 1002 double
0 3.1415926536 0 3.1415926536 1.5707963268 1.5707963268 1.5707963268 1.5707963268 2.5880182947 
0.5535743589 2.5880182947 0.5535743589 0 0 0 0 3.1415926536 3.1415926536 
3.1415926536 3.1415926536 3.1415926536 0.17788134 0.38438696014 0.60631181711 0.82323535693 1.0172219679 1.1799687454 
1.3118704726 1.4175000338 1.5022335207 0.17788134 0.38438696014 0.60631181711 0.82323535693 1.0172219679 1.1799687454 
1.3118704726 1.4175000338 1.5022335207 0.093902416448 0.17615329733 0.2478725152 0.31035131605 0.36486382811 0.41257334776 
0.45449736604 0.4915044461 0.52432611754 0.093902416448 0.17615329733 0.2478725152 0.31035131605 0.36486382811 0.41257334776 
0.45449736604 0.4915044461 0.52432611754 2.9637113136 2.7572056934 2.5352808365 2.3183572967 2.1243706857 1.9616239082 
1.829722181 1.7240926197 1.6393591329 2.9637113136 2.7572056934 2.5352808365 2.3183572967 2.1243706857 1.9616239082 
1.829722181 1.7240926197 1.6393591329 3.0476902371 2.9654393563 2.8937201384 2.8312413375 2.7767288255 2.7290193058 
2.6870952876 2.6500882075 2.617266536 3.0476902371 2.9654393563 2.8937201384 2.8312413375 2.7767288255 2.7290193058 
2.6870952876 2.6500882075 2.617266536 0 0 0 0 3.1415926536 3.1415926536 
3.1415926536 3.1415926536 3.1415926536 0.17788134 0.38438696014 0.60631181711 0.82323535693 1.0172219679 1.1799687454 
1.3118704726 1.4175000338 1.5022335207 0.17788134 0.38438696014 0.60631181711 0.82323535693 1.0172219679 1.1799687454 
1.3118704726 1.4175000338 1.5022335207 0.093902416448 0.17615329733 0.2478725152 0.31035131605 0.36486382811 0.41257334776 
0.45449736604 0.4915044461 0.52432611754 0.093902416448 0.17615329733 0.2478725152 0.31035131605 0.36486382811 0.41257334776 
0.45449736604 0.4915044461 0.52432611754 2.9637113136 2.7572056934 2.5352808365 2.3183572967 2.1243706857 1.9616239082 
1.829722181 1.7240926197 1.6393591329 2.9637113136 2.7572056934 2.5352808365 2.3183572967 2.1243706857 1.9616239082 
1.829722181 1.7240926197 1.6393591329 3.0476902371 2.9654393563 2.8937201384 2.8312413375 2.7767288255 2.7290193058 
2.6870952876 2.6500882075 2.617266536 3.0476902371 2.9654393563 2.8937201384 2.8312413375 2.7767288255 2.7290193058 
2.6870952876 2.6500882075 2.617266536 1.5707963268 1.5707963268 1.5707963268 1.5707963268 1.5707963268 1.5707963268 
1.5707963268 1.5707963268 1.5707963268 1.6743954455 1.7840462375 1.8974821136 2.0119052671 2.1243706857 2.232221744 
2.3334263672 2.426721652 2.5115728246 1.4671972081 1.3575464161 1.24411054 1.1296873865 1.0172219679 0.90937090954 
0.80816628637 0.71487100155 0.63001982895 1.6743954455 1.7840462375 1.8974821136 2.0119052671 2.1243706857 2.232221744 
2.3334263672 2.426721652 2.5115728246 1.4671972081 1.3575464161 1.24411054 1.1296873865 1.0172219679 0.90937090954 
0.80816628637 0.71487100155 0.63001982895 1.5707963268 1.5707963268 1.5707963268 1.5707963268 1.5707963268 1.5707963268 
1.5707963268 1.5707963268 1.5707963268 1.6743954455 1.7840462375 1.8974821136 2.0119052671 2.1243706857 2.232221744 
2.3334263672 2.426721652 2.5115728246 1.4671972081 1.3575464161 1.24411054 1.1296873865 1.0172219679 0.90937090954 
0.80816628637 0.71487100155 0.63001982895 1.6743954455 1.7840462375 1.8974821136 2.0119052671 2.1243706857 2.232221744 
2.3334263672 2.426721652 2.5115728246 1.4671972081 1.3575464161 1.24411054 1.1296873865 1.0172219679 0.90937090954 
0.80816628637 0.71487100155 0.63001982895 2.6824132222 2.7864913217 2.8992382033 3.0186096618 3.1415926536 3.0186096618 
2.8992382033 2.7864913217 2.6824132222 0.45917943135 0.35510133185 0.2423544503 0.12298299178 0 0.12298299178 
0.2423544503 0.35510133185 0.45917943135 0.22715816343 0.49462574053 0.3129712797 0.77059342779 0.68021497688 0.49462574053 
1.0172219679 1.0172219679 1.0172219679 1.0172219679 1.2156949949 1.271087727 1.3676273807 1.5707963268 2.1243706857 
1.3676273807 1.447813335 1.5707963268 1.7739652728 2.1243706857 2.6469669131 1.4827341049 1.5707963268 1.6937793186 
1.8705049266 2.1243706857 2.4613776767 2.8286213739 1.5707963268 1.6588585487 1.7739652728 1.9258976586 2.1243706857 
2.3709992258 2.6469669131 2.9144344902 0.26576171152 0.33975332011 0.45685295248 0.40226393329 0.51573716537 0.6552068806 
0.45538277901 0.56421707518 0.69407236469 0.84594095064 0.50083690068 0.60464862014 0.72561863695 0.86392567495 1.0172219679 
0.54002084522 0.63877777351 0.75168694275 0.87851444325 1.0172219679 1.1636342747 0.57404952988 0.66790778838 0.77356233629 
0.89058134991 1.0172219679 1.1502619915 1.2852923014 0.60381225391 0.69302191562 0.79216440667 0.90072551443 1.0172219679 
1.139116835 1.2630228569 1.3852070904 0.71487100155 0.80816628637 0.80816628637 0.90937090954 0.90937090954 0.90937090954 
1.0172219679 1.0172219679 1.0172219679 1.0172219679 1.1296873865 1.1296873865 1.1296873865 1.1296873865 1.1296873865 
1.24411054 1.24411054 1.24411054 1.24411054 1.24411054 1.24411054 1.3575464161 1.3575464161 1.3575464161 
1.3575464161 1.3575464161 1.3575464161 1.3575464161 1.4671972081 1.4671972081 1.4671972081 1.4671972081 1.4671972081 
1.4671972081 1.4671972081 1.4671972081 1.6743954455 1.6743954455 1.7840462375 1.6743954455 1.7840462375 1.8974821136 
1.6743954455 1.7840462375 1.8974821136 2.0119052671 1.6743954455 1.7840462375 1.8974821136 2.0119052671 2.1243706857 
1.6743954455 1.7840462375 1.8974821136 2.0119052671 2.1243706857 2.232221744 1.6743954455 1.7840462375 1.8974821136 
2.0119052671 2.1243706857 2.232221744 2.3334263672 1.6743954455 1.7840462375 1.8974821136 2.0119052671 2.1243706857 
2.232221744 2.3334263672 2.426721652 1.7563855631 1.8785697967 1.8563003522 2.0024758186 1.9913306621 1.9779583789 
2.1243706857 2.1243706857 2.1243706857 2.1243706857 2.2408671392 2.2510113037 2.2630782103 2.2776669786 2.295651703 
2.3494282469 2.3680303173 2.3899057108 2.4159740166 2.4475202889 2.486385773 2.448570738 2.4736848652 2.5028148801 
2.5369440334 2.5773755784 2.6258554882 2.6847397011 2.5377803997 2.5675431237 2.6015718084 2.6407557529 2.6862098746 
2.7393287203 2.8018393335 2.8758309421 2.718901062 2.8307207459 2.7598010554 2.95115522 2.8800620952 2.8058000847 
3.0774230472 3.00855263 2.9351694502 2.8576792927 3.0774230472 3.1415926536 3.0719036933 2.9967168029 2.91630358 
2.95115522 3.00855263 3.0719036933 3.1415926536 3.0653475414 2.9825888767 2.8307207459 2.8800620952 2.9351694502 
2.9967168029 3.0653475414 3.1415926536 3.0574329311 2.718901062 2.7598010554 2.8058000847 2.8576792927 2.91630358 
2.9825888767 3.0574329311 3.1415926536 2.718901062 2.7598010554 2.8307207459 2.8058000847 2.8800620952 2.95115522 
2.8576792927 2.9351694502 3.00855263 3.0774230472 2.91630358 2.9967168029 3.0719036933 3.1415926536 3.0774230472 