<?xml version="1.0"?>
<VTKFile type="PolyData" version="0.1" byte_order="LittleEndian" header_type="UInt32" compressor="vtkZLibDataCompressor">
  <PolyData>
    <Piece NumberOfPoints="72" NumberOfVerts="0" NumberOfLines="0" NumberOfStrips="0" NumberOfPolys="48">
      <PointData Scalars="spokeLength" Vectors="spokeDirection">
        <DataArray type="Float64" Name="spokeDirection" NumberOfComponents="3" format="ascii" RangeMin="0.9999999999999999" RangeMax="1">
          0.507698265744738 -0.7614659751436341 0.4030037712706171 0.44668757546527627 -0.792161951603319 0.41587215867015426
          0.3143738492328898 -0.843880145314336 0.43478199509955723 0.5162147053614837 -0.7568143202502228 0.4009419691585677
          0.4565170365223364 -0.7588526719034302 0.4644726232081809 0.3187248816235917 -0.7549501011228753 0.5731184822081623
          0.5379757076502879 -0.7444542896401416 0.39543640274330355 0.4853618672391659 -0.7186191389472876 0.4980064165939726
          0.3360336691415636 -0.6492593715681181 0.6823075857956076 0.5666765701735267 -0.7267823669700413 0.3881559684943569
          0.5182338891629409 -0.6824647345082465 0.5154372146786079 0.36097777801752434 -0.5418921487905447 0.7589782229133436
          0.58352651882468 -0.7154563978916073 0.3842121087944997 0.5503195930251997 -0.6511140952145243 0.5226842072853837
          0.39397335310068726 -0.4471372988138852 0.8030275419037777 0.6082332626286889 -0.6980776089253931 0.3778094098207007
          0.5848300484595815 -0.6225748684703073 0.5199753336149161 0.4396233613620907 -0.3686897171614738 0.8190233162762152
          0.6341079751237976 -0.6788695517212988 0.370193473240845 0.6183582127489886 -0.5950435570123829 0.5133773329471487
          0.496445553906338 -0.30486300177903 0.8127732538370763 0.6587219438754858 -0.6603480322799687 0.3605910105935461
          0.6511409677987926 -0.5724212780034648 0.4983465867676151 0.5636961210890746 -0.2652906438699681 0.7822196349774078
          0.6817959507683844 -0.641855733266036 0.35096367217897906 0.6846382191860764 -0.5507785498467013 0.4774028674594264
          0.6437456335695204 -0.2559767951303942 0.7211570145363276 0.7015721883091075 -0.6244060722061154 0.3433853834735857
          0.7184900474035089 -0.5305089747003492 0.44981360533501874 0.7201218406310691 -0.2682004174031094 0.6399164560713523
          0.7223829376725848 -0.6048067714841248 0.33521882483905363 0.75005881444537 -0.5186988666919983 0.4103209238696493
          0.7854356309880832 -0.31142831260263115 0.5348862268593474 0.7423523187000405 -0.5849857235425289 0.3266569120225343
          0.7785397450792861 -0.5151995755334908 0.3583926097201097 0.8417641170181627 -0.36140737034784026 0.40102105176523095
          0.7492319729865357 -0.5779332476497299 0.32348819439933085 0.7934501475482125 -0.5288025714751375 0.3013381883482438
          0.8700074670971909 -0.42351636636648293 0.25242997962773983 0.7423523187000405 -0.5849857235425289 0.3266569120225343
          0.7860636384113068 -0.564366907858235 0.2521784084375838 0.8623917799769396 -0.4958096258933795 0.10224105192960821
          0.7223829376725848 -0.6048067714841248 0.33521882483905363 0.7620567512915823 -0.60863783415535 0.2209739682532858
          0.8131818867805202 -0.581816347064992 -0.014998576599868743 0.7015721883091075 -0.6244060722061154 0.3433853834735857
          0.7299913320552077 -0.6515088897912656 0.2065159113657251 0.7500613951925708 -0.6517079816636158 -0.11262597425865181
          0.6817959507683844 -0.641855733266036 0.35096367217897906 0.6979724345692107 -0.6869627747636474 0.20227858678208918
          0.684063038854059 -0.7069683974164572 -0.1795924383935927 0.6587219438754858 -0.6603480322799687 0.3605910105935461
          0.6662246777896649 -0.7167402713752776 0.20598073233424202 0.6133714767699939 -0.7611395779589377 -0.21081265225191534
          0.6341079751237976 -0.6788695517212988 0.370193473240845 0.6331656854710273 -0.7430686201692279 0.21668004167851654
          0.54841957810227 -0.8116544829667668 -0.20112922869160144 0.6082332626286889 -0.6980776089253931 0.3778094098207007
          0.5987179547164407 -0.7676613716865544 0.22854502646192018 0.4856764165961964 -0.8580200790367338 -0.1670926758780138
          0.58352651882468 -0.7154563978916073 0.3842121087944997 0.5645749735300857 -0.7872517038024132 0.247971478448028
          0.4360879753492833 -0.8947059327081461 -0.09658453153900555 0.5666765701735267 -0.7267823669700413 0.3881559684943569
          0.5322915482741947 -0.8012945394523819 0.2731167674817051 0.39257685220493144 -0.9197108885852551 0.003911077931726705
          0.5379757076502879 -0.7444542896401416 0.39543640274330355 0.49620312181742493 -0.8106835545814771 0.310764599383171
          0.3654995610629241 -0.9212461506589494 0.13309996528503845 0.5162147053614837 -0.7568143202502228 0.4009419691585677
          0.4631938157276033 -0.8095637222150164 0.3606356454166324 0.3412738651728703 -0.8963766744119339 0.28291519315895963
          <InformationKey name="L2_NORM_RANGE" location="vtkDataArray" length="2">
            <Value index="0">
              1
            </Value>
            <Value index="1">
              1
            </Value>
          </InformationKey>
        </DataArray>
        <DataArray type="Float64" Name="spokeLength" format="ascii" RangeMin="1.148810826779198" RangeMax="2.460951598969149">
          1.8674677401334552 1.579239960424727 1.1496444372898775 1.9107710023667122 1.6302137871334128 1.1592243477129622
          2.0240128383414353 1.760359193152234 1.1870422062735537 2.1682409590778606 1.9269480342417742 1.2251042084328199
          2.318969797166255 2.0843028442701224 1.2620622209262131 2.423647487855209 2.1887404013722884 1.2856615154590791
          2.460951598969149 2.2269159959535947 1.2956023528440117 2.423894290823578 2.1884323686730895 1.2919013829526125
          2.3205132219059883 2.081006678671519 1.2644835045892282 2.1704837065591986 1.9253144452022148 1.226807289063473
          2.015928220691233 1.755967484195106 1.1831021236342394 1.9035616275497769 1.625310190003383 1.154993157993004
          1.860515636490396 1.575714285343971 1.148810826779198 1.9035616275497769 1.626780746383913 1.1641024192703282
          2.015928220691233 1.7581975934589429 1.185547519899695 2.1704837065591986 1.9255984949060907 1.222612552889168
          2.3205132219059883 2.0819127570515965 1.262063098521226 2.423894290823578 2.1914119174386566 1.2905817911008617
          2.460951598969149 2.228618346476339 1.291973050363767 2.423647487855209 2.192118926217262 1.284699575023358
          2.318969797166255 2.082417606378986 1.263746053897945 2.1682409590778606 1.9258996152084822 1.2283985601582588
          2.0240128383414353 1.7602064771397596 1.1847718386875161 1.9107710023667122 1.6294022143072906 1.154389943690645
        </DataArray>
      </PointData>
      <CellData>
      </CellData>
      <Points>
        <DataArray type="Float32" Name="Points" NumberOfComponents="3" format="ascii" RangeMin="8.682413136420678" RangeMax="21.024410961263484">
          -16.63351821899414 0.682163417339325 7.473053932189941 -17.817384719848633 -0.21761144697666168 7.862967491149902
          -18.995880126953125 -1.1096620559692383 8.249143600463867 -16.414165496826172 0.8485977649688721 7.400848865509033
          -17.591991424560547 0.31677570939064026 8.458657264709473 -18.75389862060547 -0.20562271773815155 9.50130844116211
          -15.771160125732422 1.3353803157806396 7.1897172927856445 -16.865739822387695 1.2078123092651367 8.84630012512207
          -17.93476104736328 1.0918972492218018 10.48120403289795 -14.75218391418457 2.1034436225891113 6.856922626495361
          -15.691534996032715 2.386791944503784 8.99976634979248 -16.607135772705078 2.6782686710357666 11.12109661102295
          -13.44005298614502 3.0905330181121826 6.4288458824157715 -14.15688419342041 3.764457941055298 8.905089378356934
          -14.869646072387695 4.4318413734436035 11.36550521850586 -11.928949356079102 4.230743885040283 5.933559894561768
          -12.366290092468262 5.249228000640869 8.563796997070312 -12.810220718383789 6.259948253631592 11.189032554626465
          -10.310988426208496 5.454254627227783 5.403696060180664 -10.435786247253418 6.749940395355225 8.009411811828613
          -10.560338020324707 8.040788650512695 10.603078842163086 -8.692238807678223 6.679681777954102 4.87310791015625
          -8.4998779296875 8.174844741821289 7.296307563781738 -8.299922943115234 9.670333862304688 9.711682319641113
          -7.178574085235596 7.826206684112549 4.375831604003906 -6.685212135314941 9.41468334197998 6.455181121826172
          -6.185577869415283 10.998422622680664 8.522683143615723 -5.874483585357666 8.8131685256958 3.948422431945801
          -5.11661958694458 10.378743171691895 5.535435676574707 -4.364053726196289 11.930681228637695 7.111210823059082
          -4.865926265716553 9.57452392578125 3.618255376815796 -3.896937847137451 11.008828163146973 4.596998691558838
          -2.9544920921325684 12.414101600646973 5.567513465881348 -4.224737167358398 10.05810832977295 3.4081871509552
          -3.1081786155700684 11.264595031738281 3.7111644744873047 -2.0126917362213135 12.448681831359863 4.010712623596191
          -4.004868984222412 10.224020004272461 3.3360841274261475 -2.8130643367767334 11.124031066894531 2.9452502727508545
          -1.6301343441009521 12.017577171325684 2.5580334663391113 -4.224737167358398 10.05810832977295 3.4081871509552
          -3.0395052433013916 10.58952808380127 2.3499555587768555 -1.8740921020507812 11.112078666687012 1.3090007305145264
          -4.865926265716553 9.57452392578125 3.618255376815796 -3.7670483589172363 9.70035457611084 1.9614402055740356
          -2.6963140964508057 9.815943717956543 0.3299306631088257 -5.874483585357666 8.8131685256958 3.948422431945801
          -4.937354564666748 8.52564811706543 1.8080253601074219 -4.0122785568237305 8.239330291748047 -0.31775370240211487
          -7.178574085235596 7.826206684112549 4.375831604003906 -6.466057777404785 7.148829936981201 1.9036171436309814
          -5.751078128814697 6.480234146118164 -0.5621064305305481 -8.692238807678223 6.679681777954102 4.87310791015625
          -8.25540828704834 5.658956050872803 2.2395036220550537 -7.812832355499268 4.652655601501465 -0.3886360228061676
          -10.310988426208496 5.454254627227783 5.403696060180664 -10.185822486877441 4.155526638031006 2.788254737854004
          -10.063942909240723 2.8679821491241455 0.1882922351360321 -11.928949356079102 4.230743885040283 5.933559894561768
          -12.123011589050293 2.7346901893615723 3.504828691482544 -12.324219703674316 1.2408392429351807 1.093494176864624
          -13.44005298614502 3.0905330181121826 6.4288458824157715 -13.938497543334961 1.5002171993255615 4.350098133087158
          -14.439537048339844 -0.08824213594198227 2.283900499343872 -14.75218391418457 2.1034436225891113 6.856922626495361
          -15.513063430786133 0.534817636013031 5.272282600402832 -16.261119842529297 -1.0232551097869873 3.697420358657837
          -15.771160125732422 1.3353803157806396 7.1897172927856445 -16.736858367919922 -0.09889974445104599 6.211677551269531
          -17.67501449584961 -1.5055444240570068 5.239109992980957 -16.414165496826172 0.8485977649688721 7.400848865509033
          -17.524919509887695 -0.35790833830833435 7.09704065322876 -18.621417999267578 -1.546655535697937 6.795225620269775
          <InformationKey name="L2_NORM_RANGE" location="vtkDataArray" length="2">
            <Value index="0">
              8.6824131364
            </Value>
            <Value index="1">
              21.024410961
            </Value>
          </InformationKey>
        </DataArray>
      </Points>
      <Verts>
        <DataArray type="Int64" Name="connectivity" format="ascii" RangeMin="1e+299" RangeMax="-1e+299">
        </DataArray>
        <DataArray type="Int64" Name="offsets" format="ascii" RangeMin="1e+299" RangeMax="-1e+299">
        </DataArray>
      </Verts>
      <Lines>
        <DataArray type="Int64" Name="connectivity" format="ascii" RangeMin="1e+299" RangeMax="-1e+299">
        </DataArray>
        <DataArray type="Int64" Name="offsets" format="ascii" RangeMin="1e+299" RangeMax="-1e+299">
        </DataArray>
      </Lines>
      <Strips>
        <DataArray type="Int64" Name="connectivity" format="ascii" RangeMin="1e+299" RangeMax="-1e+299">
        </DataArray>
        <DataArray type="Int64" Name="offsets" format="ascii" RangeMin="1e+299" RangeMax="-1e+299">
        </DataArray>
      </Strips>
      <Polys>
        <DataArray type="Int64" Name="connectivity" format="ascii" RangeMin="0" RangeMax="71">
          0 3 4 1 1 4
          5 2 3 6 7 4
          4 7 8 5 6 9
          10 7 7 10 11 8
          9 12 13 10 10 13
          14 11 12 15 16 13
          13 16 17 14 15 18
          19 16 16 19 20 17
          18 21 22 19 19 22
          23 20 21 24 25 22
          22 25 26 23 24 27
          28 25 25 28 29 26
          27 30 31 28 28 31
          32 29 30 33 34 31
          31 34 35 32 33 36
          37 34 34 37 38 35
          36 39 40 37 37 40
          41 38 39 42 43 40
          40 43 44 41 42 45
          46 43 43 46 47 44
          45 48 49 46 46 49
          50 47 48 51 52 49
          49 52 53 50 51 54
          55 52 52 55 56 53
          54 57 58 55 55 58
          59 56 57 60 61 58
          58 61 62 59 60 63
          64 61 61 64 65 62
          63 66 67 64 64 67
          68 65 66 69 70 67
          67 70 71 68 69 0
          1 70 70 1 2 71
        </DataArray>
        <DataArray type="Int64" Name="offsets" format="ascii" RangeMin="4" RangeMax="192">
          4 8 12 16 20 24
          28 32 36 40 44 48
          52 56 60 64 68 72
          76 80 84 88 92 96
          100 104 108 112 116 120
          124 128 132 136 140 144
          148 152 156 160 164 168
          172 176 180 184 188 192
        </DataArray>
      </Polys>
    </Piece>
  </PolyData>
</VTKFile>
